
;
; GENERATED BY LigParGen Server
; Jorgensen Lab @ Yale University 
;
[ atomtypes ]
  opls_826  H826     1.0080     0.000    A    2.50000E-01   1.25520E-01
  opls_814  C814    12.0110     0.000    A    3.50000E-01   2.76144E-01
  opls_824  H824     1.0080     0.000    A    2.50000E-01   1.25520E-01
  opls_811  C811    12.0110     0.000    A    3.50000E-01   2.76144E-01
  opls_805  O805    15.9990     0.000    A    2.96000E-01   8.78640E-01
  opls_818  C818    12.0110     0.000    A    3.50000E-01   2.76144E-01
  opls_843  H843     1.0080     0.000    A    2.50000E-01   1.25520E-01
  opls_836  H836     1.0080     0.000    A    2.50000E-01   1.25520E-01
  opls_834  H834     1.0080     0.000    A    2.50000E-01   1.25520E-01
  opls_810  C810    12.0110     0.000    A    3.50000E-01   2.76144E-01
  opls_828  H828     1.0080     0.000    A    2.50000E-01   1.25520E-01
  opls_802  C802    12.0110     0.000    A    3.55000E-01   3.17984E-01
  opls_812  C812    12.0110     0.000    A    3.50000E-01   2.76144E-01
  opls_806  C806    12.0110     0.000    A    3.50000E-01   2.76144E-01
  opls_827  H827     1.0080     0.000    A    2.50000E-01   1.25520E-01
  opls_809  C809    12.0110     0.000    A    3.50000E-01   2.76144E-01
  opls_838  H838     1.0080     0.000    A    2.50000E-01   1.25520E-01
  opls_822  H822     1.0080     0.000    A    2.50000E-01   1.25520E-01
  opls_807  C807    12.0110     0.000    A    3.50000E-01   2.76144E-01
  opls_825  H825     1.0080     0.000    A    2.50000E-01   1.25520E-01
  opls_830  H830     1.0080     0.000    A    2.50000E-01   1.25520E-01
  opls_821  H821     1.0080     0.000    A    2.50000E-01   1.25520E-01
  opls_842  H842     1.0080     0.000    A    2.50000E-01   1.25520E-01
  opls_820  H820     1.0080     0.000    A    2.50000E-01   1.25520E-01
  opls_837  H837     1.0080     0.000    A    2.50000E-01   1.25520E-01
  opls_829  H829     1.0080     0.000    A    2.50000E-01   1.25520E-01
  opls_831  H831     1.0080     0.000    A    2.50000E-01   1.25520E-01
  opls_832  H832     1.0080     0.000    A    2.50000E-01   1.25520E-01
  opls_800  C800    12.0110     0.000    A    3.50000E-01   2.76144E-01
  opls_846  H846     1.0080     0.000    A    2.50000E-01   1.25520E-01
  opls_848  H848     1.0080     0.000    A    2.50000E-01   1.25520E-01
  opls_815  C815    12.0110     0.000    A    3.50000E-01   2.76144E-01
  opls_823  H823     1.0080     0.000    A    2.50000E-01   1.25520E-01
  opls_813  C813    12.0110     0.000    A    3.50000E-01   2.76144E-01
  opls_849  H849     1.0080     0.000    A    2.50000E-01   1.25520E-01
  opls_801  C801    12.0110     0.000    A    3.55000E-01   3.17984E-01
  opls_835  H835     1.0080     0.000    A    2.50000E-01   1.25520E-01
  opls_841  H841     1.0080     0.000    A    2.50000E-01   1.25520E-01
  opls_819  H819     1.0080     0.000    A    2.50000E-01   1.25520E-01
  opls_816  C816    12.0110     0.000    A    3.50000E-01   2.76144E-01
  opls_833  H833     1.0080     0.000    A    2.50000E-01   1.25520E-01
  opls_839  H839     1.0080     0.000    A    2.50000E-01   1.25520E-01
  opls_817  C817    12.0110     0.000    A    3.50000E-01   2.76144E-01
  opls_808  C808    12.0110     0.000    A    3.50000E-01   2.76144E-01
  opls_803  C803    12.0110     0.000    A    3.55000E-01   2.92880E-01
  opls_850  H850     1.0080     0.000    A    2.50000E-01   1.25520E-01
  opls_840  H840     1.0080     0.000    A    2.50000E-01   1.25520E-01
  opls_804  O804    15.9990     0.000    A    2.90000E-01   5.85760E-01
  opls_847  H847     1.0080     0.000    A    2.50000E-01   1.25520E-01
  opls_844  H844     1.0080     0.000    A    2.50000E-01   1.25520E-01
  opls_845  H845     1.0080     0.000    A    2.50000E-01   1.25520E-01
[ moleculetype ]
; Name               nrexcl
TD                   3
[ atoms ]
;   nr       type  resnr residue  atom   cgnr     charge       mass  
     1   opls_800      1     TD   C00      1    -0.2093    12.0110 
     2   opls_801      1     TD   C01      1    -0.0306    12.0110 
     3   opls_802      1     TD   C02      1    -0.0508    12.0110 
     4   opls_803      1     TD   C03      1     0.3022    12.0110 
     5   opls_804      1     TD   O04      1    -0.4043    15.9990 
     6   opls_805      1     TD   O05      1    -0.4849    15.9990 
     7   opls_806      1     TD   C06      1     0.0233    12.0110 
     8   opls_807      1     TD   C07      1    -0.1834    12.0110 
     9   opls_808      1     TD   C08      1    -0.1779    12.0110 
    10   opls_809      1     TD   C09      1    -0.1795    12.0110 
    11   opls_810      1     TD   C0A      1    -0.1784    12.0110 
    12   opls_811      1     TD   C0B      1    -0.1795    12.0110 
    13   opls_812      1     TD   C0C      1    -0.1771    12.0110 
    14   opls_813      1     TD   C0D      1    -0.1762    12.0110 
    15   opls_814      1     TD   C0E      1    -0.1758    12.0110 
    16   opls_815      1     TD   C0F      1    -0.1758    12.0110 
    17   opls_816      1     TD   C0G      1    -0.1765    12.0110 
    18   opls_817      1     TD   C0H      1    -0.1777    12.0110 
    19   opls_818      1     TD   C0I      1    -0.2375    12.0110 
    20   opls_819      1     TD   H0J      1     0.1178     1.0080 
    21   opls_820      1     TD   H0K      1     0.1178     1.0080 
    22   opls_821      1     TD   H0M      1     0.1178     1.0080 
    23   opls_822      1     TD   H0N      1      0.135     1.0080 
    24   opls_823      1     TD   H0O      1      0.135     1.0080 
    25   opls_824      1     TD   H0P      1     0.0994     1.0080 
    26   opls_825      1     TD   H0Q      1     0.0994     1.0080 
    27   opls_826      1     TD   H0R      1     0.0977     1.0080 
    28   opls_827      1     TD   H0S      1     0.0977     1.0080 
    29   opls_828      1     TD   H0T      1        0.1     1.0080 
    30   opls_829      1     TD   H0U      1        0.1     1.0080 
    31   opls_830      1     TD   H0V      1     0.0884     1.0080 
    32   opls_831      1     TD   H0W      1     0.0884     1.0080 
    33   opls_832      1     TD   H0X      2       0.09     1.0080 
    34   opls_833      1     TD   H0Y      2       0.09     1.0080 
    35   opls_834      1     TD   H0Z      2     0.0893     1.0080 
    36   opls_835      1     TD   H10      2     0.0893     1.0080 
    37   opls_836      1     TD   H11      2     0.0885     1.0080 
    38   opls_837      1     TD   H12      2     0.0885     1.0080 
    39   opls_838      1     TD   H13      2     0.0875     1.0080 
    40   opls_839      1     TD   H14      2     0.0875     1.0080 
    41   opls_840      1     TD   H15      2     0.0883     1.0080 
    42   opls_841      1     TD   H16      2     0.0883     1.0080 
    43   opls_842      1     TD   H17      2     0.0887     1.0080 
    44   opls_843      1     TD   H18      2     0.0887     1.0080 
    45   opls_844      1     TD   H19      2     0.0878     1.0080 
    46   opls_845      1     TD   H1A      2     0.0878     1.0080 
    47   opls_846      1     TD   H1B      2     0.0871     1.0080 
    48   opls_847      1     TD   H1C      2     0.0871     1.0080 
    49   opls_848      1     TD   H1D      2     0.0805     1.0080 
    50   opls_849      1     TD   H1E      2     0.0805     1.0080 
    51   opls_850      1     TD   H1F      2     0.0805     1.0080 
[ bonds ]
    2     1     1      0.1510 265265.600
    3     2     1      0.1340 459403.200
    4     2     1      0.1444 343088.000
    5     4     1      0.1327 179075.200
    6     4     1      0.1229 476976.000
    7     5     1      0.1410 267776.000
    8     7     1      0.1529 224262.400
    9     8     1      0.1529 224262.400
   10     9     1      0.1529 224262.400
   11    10     1      0.1529 224262.400
   12    11     1      0.1529 224262.400
   13    12     1      0.1529 224262.400
   14    13     1      0.1529 224262.400
   15    14     1      0.1529 224262.400
   16    15     1      0.1529 224262.400
   17    16     1      0.1529 224262.400
   18    17     1      0.1529 224262.400
   19    18     1      0.1529 224262.400
   20     1     1      0.1090 284512.000
   21     1     1      0.1090 284512.000
   22     1     1      0.1090 284512.000
   23     3     1      0.1080 284512.000
   24     3     1      0.1080 284512.000
   25     7     1      0.1090 284512.000
   26     7     1      0.1090 284512.000
   27     8     1      0.1090 284512.000
   28     8     1      0.1090 284512.000
   29     9     1      0.1090 284512.000
   30     9     1      0.1090 284512.000
   31    10     1      0.1090 284512.000
   32    10     1      0.1090 284512.000
   33    11     1      0.1090 284512.000
   34    11     1      0.1090 284512.000
   35    12     1      0.1090 284512.000
   36    12     1      0.1090 284512.000
   37    13     1      0.1090 284512.000
   38    13     1      0.1090 284512.000
   39    14     1      0.1090 284512.000
   40    14     1      0.1090 284512.000
   41    15     1      0.1090 284512.000
   42    15     1      0.1090 284512.000
   43    16     1      0.1090 284512.000
   44    16     1      0.1090 284512.000
   45    17     1      0.1090 284512.000
   46    17     1      0.1090 284512.000
   47    18     1      0.1090 284512.000
   48    18     1      0.1090 284512.000
   49    19     1      0.1090 284512.000
   50    19     1      0.1090 284512.000
   51    19     1      0.1090 284512.000

[ angles ]
;  ai    aj    ak funct            c0            c1            c2            c3 
    1     2     3     1    124.000    585.760
    1     2     4     1    119.700    585.760
    2     4     5     1    111.400    677.808
    2     4     6     1    125.300    669.440
    4     5     7     1    116.900    694.544
    5     7     8     1    109.500    418.400
    7     8     9     1    112.700    488.273
    8     9    10     1    112.700    488.273
    9    10    11     1    112.700    488.273
   10    11    12     1    112.700    488.273
   11    12    13     1    112.700    488.273
   12    13    14     1    112.700    488.273
   13    14    15     1    112.700    488.273
   14    15    16     1    112.700    488.273
   15    16    17     1    112.700    488.273
   16    17    18     1    112.700    488.273
   17    18    19     1    112.700    488.273
    2     1    20     1    109.500    292.880
    2     1    21     1    109.500    292.880
    2     1    22     1    109.500    292.880
    2     3    23     1    120.000    292.880
    2     3    24     1    120.000    292.880
    5     7    25     1    109.500    292.880
    5     7    26     1    109.500    292.880
    7     8    27     1    110.700    313.800
    7     8    28     1    110.700    313.800
    8     9    29     1    110.700    313.800
    8     9    30     1    110.700    313.800
    9    10    31     1    110.700    313.800
    9    10    32     1    110.700    313.800
   10    11    33     1    110.700    313.800
   10    11    34     1    110.700    313.800
   11    12    35     1    110.700    313.800
   11    12    36     1    110.700    313.800
   12    13    37     1    110.700    313.800
   12    13    38     1    110.700    313.800
   13    14    39     1    110.700    313.800
   13    14    40     1    110.700    313.800
   14    15    41     1    110.700    313.800
   14    15    42     1    110.700    313.800
   15    16    43     1    110.700    313.800
   15    16    44     1    110.700    313.800
   16    17    45     1    110.700    313.800
   16    17    46     1    110.700    313.800
   17    18    47     1    110.700    313.800
   17    18    48     1    110.700    313.800
   18    19    49     1    110.700    313.800
   18    19    50     1    110.700    313.800
   18    19    51     1    110.700    313.800
   29     9    30     1    107.800    276.144
   33    11    34     1    107.800    276.144
   13    12    36     1    110.700    313.800
    8     7    26     1    110.700    313.800
   35    12    36     1    107.800    276.144
   15    14    40     1    110.700    313.800
    9     8    27     1    110.700    313.800
   16    15    42     1    110.700    313.800
   39    14    40     1    107.800    276.144
   20     1    21     1    107.800    276.144
   16    15    41     1    110.700    313.800
    5     4     6     1    123.400    694.544
   10     9    29     1    110.700    313.800
   31    10    32     1    107.800    276.144
   25     7    26     1    107.800    276.144
   19    18    48     1    110.700    313.800
   37    13    38     1    107.800    276.144
   17    16    44     1    110.700    313.800
   20     1    22     1    107.800    276.144
   19    18    47     1    110.700    313.800
   45    17    46     1    107.800    276.144
   49    19    50     1    107.800    276.144
   41    15    42     1    107.800    276.144
   27     8    28     1    107.800    276.144
   23     3    24     1    117.000    292.880
   43    16    44     1    107.800    276.144
    8     7    25     1    110.700    313.800
   14    13    38     1    110.700    313.800
   18    17    46     1    110.700    313.800
   49    19    51     1    107.800    276.144
   21     1    22     1    107.800    276.144
   11    10    31     1    110.700    313.800
   12    11    34     1    110.700    313.800
   18    17    45     1    110.700    313.800
   12    11    33     1    110.700    313.800
   15    14    39     1    110.700    313.800
    9     8    28     1    110.700    313.800
   10     9    30     1    110.700    313.800
   17    16    43     1    110.700    313.800
   14    13    37     1    110.700    313.800
   47    18    48     1    107.800    276.144
   11    10    32     1    110.700    313.800
    3     2     4     1    120.700    711.280
   13    12    35     1    110.700    313.800
   50    19    51     1    107.800    276.144

[ dihedrals ]
; IMPROPER DIHEDRAL ANGLES 
;  ai    aj    ak    al funct            c0            c1            c2            c3            c4            c5
     4     2     1     3    4        180.000     10.460     2  
    24     3     2    23    4        180.000     10.460     2  
     6     4     2     5    4        180.000     43.932     2  

[ dihedrals ]
; PROPER DIHEDRAL ANGLES
;  ai    aj    ak    al funct            c0            c1            c2            c3            c4            c5
   19   18   17   16        3       2.301  -1.464   0.837  -1.674  -0.000   0.000
   18   17   16   15        3       2.301  -1.464   0.837  -1.674  -0.000   0.000
   17   16   15   14        3       2.301  -1.464   0.837  -1.674  -0.000   0.000
   16   15   14   13        3       2.301  -1.464   0.837  -1.674  -0.000   0.000
   14   13   12   11        3       2.301  -1.464   0.837  -1.674  -0.000   0.000
   13   12   11   10        3       2.301  -1.464   0.837  -1.674  -0.000   0.000
   12   11   10    9        3       2.301  -1.464   0.837  -1.674  -0.000   0.000
   15   14   13   12        3       2.301  -1.464   0.837  -1.674  -0.000   0.000
   10    9    8    7        3       2.301  -1.464   0.837  -1.674  -0.000   0.000
   11   10    9    8        3       2.301  -1.464   0.837  -1.674  -0.000   0.000
    9    8    7    5        3       2.874   0.582   2.092  -5.548  -0.000   0.000
    8    7    5    4        3      -2.197   5.201   0.527  -3.531  -0.000   0.000
    7    5    4    2        3      31.206  -9.768  -21.439  -0.000  -0.000   0.000
    7    5    4    6        3      21.439   0.000  -21.439  -0.000  -0.000   0.000
   23    3    2    4        3      58.576   0.000  -58.576  -0.000  -0.000   0.000
   24    3    2    4        3      58.576   0.000  -58.576  -0.000  -0.000   0.000
   24    3    2    1        3      58.576   0.000  -58.576  -0.000  -0.000   0.000
   23    3    2    1        3      58.576   0.000  -58.576  -0.000  -0.000   0.000
   22    1    2    4        3      -0.778  -2.335   0.000   3.113  -0.000   0.000
   20    1    2    4        3      -0.778  -2.335   0.000   3.113  -0.000   0.000
   21    1    2    4        3      -0.778  -2.335   0.000   3.113  -0.000   0.000
   22    1    2    3        3      -0.778  -2.335   0.000   3.113  -0.000   0.000
   21    1    2    3        3      -0.778  -2.335   0.000   3.113  -0.000   0.000
   20    1    2    3        3      -0.778  -2.335   0.000   3.113  -0.000   0.000
   32   10   11   12        3       0.628   1.883   0.000  -2.510  -0.000   0.000
   46   17   18   19        3       0.628   1.883   0.000  -2.510  -0.000   0.000
   40   14   13   12        3       0.628   1.883   0.000  -2.510  -0.000   0.000
   37   13   14   15        3       0.628   1.883   0.000  -2.510  -0.000   0.000
   26    7    8    9        3       0.628   1.883   0.000  -2.510  -0.000   0.000
   45   17   16   15        3       0.628   1.883   0.000  -2.510  -0.000   0.000
   29    9    8    7        3       0.628   1.883   0.000  -2.510  -0.000   0.000
   42   15   16   17        3       0.628   1.883   0.000  -2.510  -0.000   0.000
   39   14   13   12        3       0.628   1.883   0.000  -2.510  -0.000   0.000
   31   10    9    8        3       0.628   1.883   0.000  -2.510  -0.000   0.000
   40   14   15   16        3       0.628   1.883   0.000  -2.510  -0.000   0.000
   51   19   18   17        3       0.628   1.883   0.000  -2.510  -0.000   0.000
   45   17   18   19        3       0.628   1.883   0.000  -2.510  -0.000   0.000
   34   11   12   13        3       0.628   1.883   0.000  -2.510  -0.000   0.000
   44   16   17   18        3       0.628   1.883   0.000  -2.510  -0.000   0.000
   25    7    8    9        3       0.628   1.883   0.000  -2.510  -0.000   0.000
   38   13   14   15        3       0.628   1.883   0.000  -2.510  -0.000   0.000
   38   13   12   11        3       0.628   1.883   0.000  -2.510  -0.000   0.000
   33   11   10    9        3       0.628   1.883   0.000  -2.510  -0.000   0.000
   32   10    9    8        3       0.628   1.883   0.000  -2.510  -0.000   0.000
   44   16   15   14        3       0.628   1.883   0.000  -2.510  -0.000   0.000
   41   15   16   17        3       0.628   1.883   0.000  -2.510  -0.000   0.000
   36   12   13   14        3       0.628   1.883   0.000  -2.510  -0.000   0.000
   47   18   17   16        3       0.628   1.883   0.000  -2.510  -0.000   0.000
   30    9    8    7        3       0.628   1.883   0.000  -2.510  -0.000   0.000
   48   18   17   16        3       0.628   1.883   0.000  -2.510  -0.000   0.000
   27    8    9   10        3       0.628   1.883   0.000  -2.510  -0.000   0.000
   37   13   12   11        3       0.628   1.883   0.000  -2.510  -0.000   0.000
   35   12   11   10        3       0.628   1.883   0.000  -2.510  -0.000   0.000
   42   15   14   13        3       0.628   1.883   0.000  -2.510  -0.000   0.000
   28    8    9   10        3       0.628   1.883   0.000  -2.510  -0.000   0.000
   35   12   13   14        3       0.628   1.883   0.000  -2.510  -0.000   0.000
   34   11   10    9        3       0.628   1.883   0.000  -2.510  -0.000   0.000
   43   16   15   14        3       0.628   1.883   0.000  -2.510  -0.000   0.000
   50   19   18   17        3       0.628   1.883   0.000  -2.510  -0.000   0.000
   30    9   10   11        3       0.628   1.883   0.000  -2.510  -0.000   0.000
   43   16   17   18        3       0.628   1.883   0.000  -2.510  -0.000   0.000
   46   17   16   15        3       0.628   1.883   0.000  -2.510  -0.000   0.000
   31   10   11   12        3       0.628   1.883   0.000  -2.510  -0.000   0.000
   39   14   15   16        3       0.628   1.883   0.000  -2.510  -0.000   0.000
   29    9   10   11        3       0.628   1.883   0.000  -2.510  -0.000   0.000
   33   11   12   13        3       0.628   1.883   0.000  -2.510  -0.000   0.000
   49   19   18   17        3       0.628   1.883   0.000  -2.510  -0.000   0.000
   41   15   14   13        3       0.628   1.883   0.000  -2.510  -0.000   0.000
   36   12   11   10        3       0.628   1.883   0.000  -2.510  -0.000   0.000
   50   19   18   47        3       0.628   1.883   0.000  -2.510  -0.000   0.000
   33   11   10   31        3       0.628   1.883   0.000  -2.510  -0.000   0.000
   43   16   15   42        3       0.628   1.883   0.000  -2.510  -0.000   0.000
   35   12   11   34        3       0.628   1.883   0.000  -2.510  -0.000   0.000
   36   12   11   33        3       0.628   1.883   0.000  -2.510  -0.000   0.000
   36   12   11   34        3       0.628   1.883   0.000  -2.510  -0.000   0.000
   39   14   13   37        3       0.628   1.883   0.000  -2.510  -0.000   0.000
   27    8    7   25        3       0.628   1.883   0.000  -2.510  -0.000   0.000
   41   15   14   40        3       0.628   1.883   0.000  -2.510  -0.000   0.000
   42   15   14   39        3       0.628   1.883   0.000  -2.510  -0.000   0.000
   44   16   15   41        3       0.628   1.883   0.000  -2.510  -0.000   0.000
   34   11   10   31        3       0.628   1.883   0.000  -2.510  -0.000   0.000
   33   11   10   32        3       0.628   1.883   0.000  -2.510  -0.000   0.000
   43   16   15   41        3       0.628   1.883   0.000  -2.510  -0.000   0.000
   32   10    9   29        3       0.628   1.883   0.000  -2.510  -0.000   0.000
   31   10    9   30        3       0.628   1.883   0.000  -2.510  -0.000   0.000
   46   17   16   44        3       0.628   1.883   0.000  -2.510  -0.000   0.000
   49   19   18   48        3       0.628   1.883   0.000  -2.510  -0.000   0.000
   46   17   16   43        3       0.628   1.883   0.000  -2.510  -0.000   0.000
   30    9    8   28        3       0.628   1.883   0.000  -2.510  -0.000   0.000
   27    8    7   26        3       0.628   1.883   0.000  -2.510  -0.000   0.000
   35   12   11   33        3       0.628   1.883   0.000  -2.510  -0.000   0.000
   32   10    9   30        3       0.628   1.883   0.000  -2.510  -0.000   0.000
   29    9    8   27        3       0.628   1.883   0.000  -2.510  -0.000   0.000
   31   10    9   29        3       0.628   1.883   0.000  -2.510  -0.000   0.000
   38   13   12   36        3       0.628   1.883   0.000  -2.510  -0.000   0.000
   47   18   17   45        3       0.628   1.883   0.000  -2.510  -0.000   0.000
   42   15   14   40        3       0.628   1.883   0.000  -2.510  -0.000   0.000
   38   13   12   35        3       0.628   1.883   0.000  -2.510  -0.000   0.000
   40   14   13   38        3       0.628   1.883   0.000  -2.510  -0.000   0.000
   51   19   18   47        3       0.628   1.883   0.000  -2.510  -0.000   0.000
   47   18   17   46        3       0.628   1.883   0.000  -2.510  -0.000   0.000
   37   13   12   35        3       0.628   1.883   0.000  -2.510  -0.000   0.000
   41   15   14   39        3       0.628   1.883   0.000  -2.510  -0.000   0.000
   34   11   10   32        3       0.628   1.883   0.000  -2.510  -0.000   0.000
   28    8    7   25        3       0.628   1.883   0.000  -2.510  -0.000   0.000
   51   19   18   48        3       0.628   1.883   0.000  -2.510  -0.000   0.000
   48   18   17   46        3       0.628   1.883   0.000  -2.510  -0.000   0.000
   40   14   13   37        3       0.628   1.883   0.000  -2.510  -0.000   0.000
   39   14   13   38        3       0.628   1.883   0.000  -2.510  -0.000   0.000
   44   16   15   42        3       0.628   1.883   0.000  -2.510  -0.000   0.000
   37   13   12   36        3       0.628   1.883   0.000  -2.510  -0.000   0.000
   45   17   16   43        3       0.628   1.883   0.000  -2.510  -0.000   0.000
   29    9    8   28        3       0.628   1.883   0.000  -2.510  -0.000   0.000
   45   17   16   44        3       0.628   1.883   0.000  -2.510  -0.000   0.000
   50   19   18   48        3       0.628   1.883   0.000  -2.510  -0.000   0.000
   28    8    7   26        3       0.628   1.883   0.000  -2.510  -0.000   0.000
   49   19   18   47        3       0.628   1.883   0.000  -2.510  -0.000   0.000
   48   18   17   45        3       0.628   1.883   0.000  -2.510  -0.000   0.000
   30    9    8   27        3       0.628   1.883   0.000  -2.510  -0.000   0.000
   28    8    7    5        3       0.979   2.937   0.000  -3.916  -0.000   0.000
   27    8    7    5        3       0.979   2.937   0.000  -3.916  -0.000   0.000
   25    7    5    4        3       0.414   1.243   0.000  -1.657  -0.000   0.000
   26    7    5    4        3       0.414   1.243   0.000  -1.657  -0.000   0.000
    6    4    2    3        3      30.334  -5.230  -25.104  -0.000  -0.000   0.000
    6    4    2    1        3       1.789  -5.052  -0.962   4.226  -0.000   0.000
    5    4    2    3        3      -5.858  -6.694  12.552  -0.000  -0.000   0.000
    5    4    2    1        3       1.789  -5.052  -0.962   4.226  -0.000   0.000

[ pairs ]
     1     5    1
     1     6    1
     3     5    1
     3     6    1
     2     7    1
     4     8    1
     6     7    1
     5     9    1
     7    10    1
     8    11    1
     9    12    1
    10    13    1
     3    20    1
     4    20    1
     3    21    1
     1    23    1
    11    14    1
     4    21    1
     3    22    1
     1    24    1
     4    22    1
    12    15    1
     4    23    1
     4    24    1
    13    16    1
     4    25    1
     4    26    1
    14    17    1
     5    27    1
    15    18    1
     5    28    1
     9    25    1
    16    19    1
     9    26    1
     7    29    1
    10    27    1
     7    30    1
    10    28    1
     8    31    1
    11    29    1
     8    32    1
    11    30    1
     9    33    1
    12    31    1
     9    34    1
    12    32    1
    10    35    1
    13    33    1
    10    36    1
    13    34    1
    11    37    1
    14    35    1
    11    38    1
    14    36    1
    12    39    1
    25    27    1
    15    37    1
    12    40    1
    26    27    1
    25    28    1
    15    38    1
    26    28    1
    13    41    1
    16    39    1
    13    42    1
    27    29    1
    16    40    1
    28    29    1
    27    30    1
    14    43    1
    28    30    1
    17    41    1
    14    44    1
    17    42    1
    29    31    1
    15    45    1
    30    31    1
    29    32    1
    18    43    1
    15    46    1
    30    32    1
    18    44    1
    16    47    1
    31    33    1
    19    45    1
    16    48    1
    32    33    1
    31    34    1
    19    46    1
    32    34    1
    17    49    1
    17    50    1
    33    35    1
    17    51    1
    34    35    1
    33    36    1
    34    36    1
    35    37    1
    36    37    1
    35    38    1
    36    38    1
    37    39    1
    38    39    1
    37    40    1
    38    40    1
    39    41    1
    40    41    1
    39    42    1
    40    42    1
    41    43    1
    42    43    1
    41    44    1
    42    44    1
    43    45    1
    44    45    1
    43    46    1
    44    46    1
    45    47    1
    46    47    1
    45    48    1
    46    48    1
    47    49    1
    48    49    1
    47    50    1
    48    50    1
    47    51    1
    48    51    1
