
;
; GENERATED BY LigParGen Server
; Jorgensen Lab @ Yale University 
;
[ atomtypes ]
  opls_818  H818     1.0080     0.000    A    2.50000E-01   1.25520E-01
  opls_806  H806     1.0080     0.000    A    2.50000E-01   1.25520E-01
  opls_830  H830     1.0080     0.000    A    2.50000E-01   1.25520E-01
  opls_804  C804    12.0110     0.000    A    3.50000E-01   2.76144E-01
  opls_841  C841    12.0110     0.000    A    3.55000E-01   2.92880E-01
  opls_850  H850     1.0080     0.000    A    2.50000E-01   1.25520E-01
  opls_836  H836     1.0080     0.000    A    2.50000E-01   1.25520E-01
  opls_835  H835     1.0080     0.000    A    2.50000E-01   1.25520E-01
  opls_800  H800     1.0080     0.000    A    2.50000E-01   1.25520E-01
  opls_825  C825    12.0110     0.000    A    3.50000E-01   2.76144E-01
  opls_815  H815     1.0080     0.000    A    2.50000E-01   1.25520E-01
  opls_801  C801    12.0110     0.000    A    3.50000E-01   2.76144E-01
  opls_805  H805     1.0080     0.000    A    2.50000E-01   1.25520E-01
  opls_808  H808     1.0080     0.000    A    2.50000E-01   1.25520E-01
  opls_807  C807    12.0110     0.000    A    3.50000E-01   2.76144E-01
  opls_838  H838     1.0080     0.000    A    2.50000E-01   1.25520E-01
  opls_834  C834    12.0110     0.000    A    3.50000E-01   2.76144E-01
  opls_826  H826     1.0080     0.000    A    2.50000E-01   1.25520E-01
  opls_814  H814     1.0080     0.000    A    2.50000E-01   1.25520E-01
  opls_843  C843    12.0110     0.000    A    3.55000E-01   3.17984E-01
  opls_840  O840    15.9990     0.000    A    2.90000E-01   5.85760E-01
  opls_810  C810    12.0110     0.000    A    3.50000E-01   2.76144E-01
  opls_824  H824     1.0080     0.000    A    2.50000E-01   1.25520E-01
  opls_842  O842    15.9990     0.000    A    2.96000E-01   8.78640E-01
  opls_802  H802     1.0080     0.000    A    2.50000E-01   1.25520E-01
  opls_844  C844    12.0110     0.000    A    3.55000E-01   3.17984E-01
  opls_811  H811     1.0080     0.000    A    2.50000E-01   1.25520E-01
  opls_821  H821     1.0080     0.000    A    2.50000E-01   1.25520E-01
  opls_803  H803     1.0080     0.000    A    2.50000E-01   1.25520E-01
  opls_822  C822    12.0110     0.000    A    3.50000E-01   2.76144E-01
  opls_832  H832     1.0080     0.000    A    2.50000E-01   1.25520E-01
  opls_837  C837    12.0110     0.000    A    3.50000E-01   2.76144E-01
  opls_846  H846     1.0080     0.000    A    2.50000E-01   1.25520E-01
  opls_848  H848     1.0080     0.000    A    2.50000E-01   1.25520E-01
  opls_823  H823     1.0080     0.000    A    2.50000E-01   1.25520E-01
  opls_833  H833     1.0080     0.000    A    2.50000E-01   1.25520E-01
  opls_819  C819    12.0110     0.000    A    3.50000E-01   2.76144E-01
  opls_831  C831    12.0110     0.000    A    3.50000E-01   2.76144E-01
  opls_820  H820     1.0080     0.000    A    2.50000E-01   1.25520E-01
  opls_813  C813    12.0110     0.000    A    3.50000E-01   2.76144E-01
  opls_816  C816    12.0110     0.000    A    3.50000E-01   2.76144E-01
  opls_827  H827     1.0080     0.000    A    2.50000E-01   1.25520E-01
  opls_839  H839     1.0080     0.000    A    2.50000E-01   1.25520E-01
  opls_829  H829     1.0080     0.000    A    2.50000E-01   1.25520E-01
  opls_828  C828    12.0110     0.000    A    3.50000E-01   2.76144E-01
  opls_817  H817     1.0080     0.000    A    2.50000E-01   1.25520E-01
  opls_847  C847    12.0110     0.000    A    3.50000E-01   2.76144E-01
  opls_849  H849     1.0080     0.000    A    2.50000E-01   1.25520E-01
  opls_812  H812     1.0080     0.000    A    2.50000E-01   1.25520E-01
  opls_809  H809     1.0080     0.000    A    2.50000E-01   1.25520E-01
  opls_845  H845     1.0080     0.000    A    2.50000E-01   1.25520E-01
[ moleculetype ]
; Name               nrexcl
TD                   3
[ atoms ]
;   nr       type  resnr residue  atom   cgnr     charge       mass  
     1   opls_800      1     TD   H00      1     0.0796     1.0080 
     2   opls_801      1     TD   C01      1     -0.237    12.0110 
     3   opls_802      1     TD   H02      1     0.0796     1.0080 
     4   opls_803      1     TD   H03      1     0.0796     1.0080 
     5   opls_804      1     TD   C04      1    -0.1739    12.0110 
     6   opls_805      1     TD   H05      1     0.0874     1.0080 
     7   opls_806      1     TD   H06      1     0.0874     1.0080 
     8   opls_807      1     TD   C07      1    -0.1796    12.0110 
     9   opls_808      1     TD   H08      1     0.0887     1.0080 
    10   opls_809      1     TD   H09      1     0.0887     1.0080 
    11   opls_810      1     TD   C0A      1    -0.1761    12.0110 
    12   opls_811      1     TD   H0B      1     0.0897     1.0080 
    13   opls_812      1     TD   H0C      1     0.0897     1.0080 
    14   opls_813      1     TD   C0D      1    -0.1809    12.0110 
    15   opls_814      1     TD   H0E      1     0.0897     1.0080 
    16   opls_815      1     TD   H0F      1     0.0897     1.0080 
    17   opls_816      1     TD   C0G      1    -0.1807    12.0110 
    18   opls_817      1     TD   H0H      1     0.0897     1.0080 
    19   opls_818      1     TD   H0I      1     0.0897     1.0080 
    20   opls_819      1     TD   C0J      1    -0.1762    12.0110 
    21   opls_820      1     TD   H0K      1     0.0887     1.0080 
    22   opls_821      1     TD   H0M      1     0.0887     1.0080 
    23   opls_822      1     TD   C0N      1    -0.1807    12.0110 
    24   opls_823      1     TD   H0O      1     0.0904     1.0080 
    25   opls_824      1     TD   H0P      1     0.0904     1.0080 
    26   opls_825      1     TD   C0Q      1    -0.1784    12.0110 
    27   opls_826      1     TD   H0R      1      0.089     1.0080 
    28   opls_827      1     TD   H0S      1      0.089     1.0080 
    29   opls_828      1     TD   C0T      1    -0.1782    12.0110 
    30   opls_829      1     TD   H0U      1     0.0898     1.0080 
    31   opls_830      1     TD   H0V      1     0.0898     1.0080 
    32   opls_831      1     TD   C0W      1     -0.178    12.0110 
    33   opls_832      1     TD   H0X      2     0.1014     1.0080 
    34   opls_833      1     TD   H0Y      2     0.1014     1.0080 
    35   opls_834      1     TD   C0Z      2    -0.2178    12.0110 
    36   opls_835      1     TD   H10      2     0.1013     1.0080 
    37   opls_836      1     TD   H11      2     0.1013     1.0080 
    38   opls_837      1     TD   C12      2     0.0103    12.0110 
    39   opls_838      1     TD   H13      2     0.1083     1.0080 
    40   opls_839      1     TD   H14      2     0.1083     1.0080 
    41   opls_840      1     TD   O15      2    -0.3553    15.9990 
    42   opls_841      1     TD   C16      2     0.4666    12.0110 
    43   opls_842      1     TD   O17      2    -0.3914    15.9990 
    44   opls_843      1     TD   C18      2    -0.1596    12.0110 
    45   opls_844      1     TD   C19      2       -0.2    12.0110 
    46   opls_845      1     TD   H1A      2     0.1442     1.0080 
    47   opls_846      1     TD   H1B      2     0.1442     1.0080 
    48   opls_847      1     TD   C1C      2    -0.2025    12.0110 
    49   opls_848      1     TD   H1D      2     0.1047     1.0080 
    50   opls_849      1     TD   H1E      2     0.1047     1.0080 
    51   opls_850      1     TD   H1F      2     0.1047     1.0080 
[ bonds ]
    2     1     1      0.1090 284512.000
    3     2     1      0.1090 284512.000
    4     2     1      0.1090 284512.000
    5     2     1      0.1529 224262.400
    6     5     1      0.1090 284512.000
    7     5     1      0.1090 284512.000
    8     5     1      0.1529 224262.400
    9     8     1      0.1090 284512.000
   10     8     1      0.1090 284512.000
   11     8     1      0.1529 224262.400
   12    11     1      0.1090 284512.000
   13    11     1      0.1090 284512.000
   14    11     1      0.1529 224262.400
   15    14     1      0.1090 284512.000
   16    14     1      0.1090 284512.000
   17    14     1      0.1529 224262.400
   18    17     1      0.1090 284512.000
   19    17     1      0.1090 284512.000
   20    17     1      0.1529 224262.400
   21    20     1      0.1090 284512.000
   22    20     1      0.1090 284512.000
   23    20     1      0.1529 224262.400
   24    23     1      0.1090 284512.000
   25    23     1      0.1090 284512.000
   26    23     1      0.1529 224262.400
   27    26     1      0.1090 284512.000
   28    26     1      0.1090 284512.000
   29    26     1      0.1529 224262.400
   30    29     1      0.1090 284512.000
   31    29     1      0.1090 284512.000
   32    29     1      0.1529 224262.400
   33    32     1      0.1090 284512.000
   34    32     1      0.1090 284512.000
   35    32     1      0.1529 224262.400
   36    35     1      0.1090 284512.000
   37    35     1      0.1090 284512.000
   38    35     1      0.1529 224262.400
   39    38     1      0.1090 284512.000
   40    38     1      0.1090 284512.000
   41    38     1      0.1410 267776.000
   42    41     1      0.1327 179075.200
   43    42     1      0.1229 476976.000
   44    42     1      0.1444 343088.000
   45    44     1      0.1340 459403.200
   46    45     1      0.1080 284512.000
   47    45     1      0.1080 284512.000
   48    44     1      0.1510 265265.600
   49    48     1      0.1090 284512.000
   50    48     1      0.1090 284512.000
   51    48     1      0.1090 284512.000

[ angles ]
;  ai    aj    ak funct            c0            c1            c2            c3 
    1     2     3     1    107.800    276.144
    1     2     4     1    107.800    276.144
    1     2     5     1    110.700    313.800
    2     5     6     1    110.700    313.800
    2     5     7     1    110.700    313.800
    2     5     8     1    112.700    488.273
    5     8     9     1    110.700    313.800
    5     8    10     1    110.700    313.800
    5     8    11     1    112.700    488.273
    8    11    12     1    110.700    313.800
    8    11    13     1    110.700    313.800
    8    11    14     1    112.700    488.273
   11    14    15     1    110.700    313.800
   11    14    16     1    110.700    313.800
   11    14    17     1    112.700    488.273
   14    17    18     1    110.700    313.800
   14    17    19     1    110.700    313.800
   14    17    20     1    112.700    488.273
   17    20    21     1    110.700    313.800
   17    20    22     1    110.700    313.800
   17    20    23     1    112.700    488.273
   20    23    24     1    110.700    313.800
   20    23    25     1    110.700    313.800
   20    23    26     1    112.700    488.273
   23    26    27     1    110.700    313.800
   23    26    28     1    110.700    313.800
   23    26    29     1    112.700    488.273
   26    29    30     1    110.700    313.800
   26    29    31     1    110.700    313.800
   26    29    32     1    112.700    488.273
   29    32    33     1    110.700    313.800
   29    32    34     1    110.700    313.800
   29    32    35     1    112.700    488.273
   32    35    36     1    110.700    313.800
   32    35    37     1    110.700    313.800
   32    35    38     1    112.700    488.273
   35    38    39     1    110.700    313.800
   35    38    40     1    110.700    313.800
   35    38    41     1    109.500    418.400
   38    41    42     1    116.900    694.544
   41    42    43     1    123.400    694.544
   41    42    44     1    111.400    677.808
   42    44    45     1    120.700    711.280
   44    45    46     1    120.000    292.880
   44    45    47     1    120.000    292.880
   42    44    48     1    119.700    585.760
   44    48    49     1    109.500    292.880
   44    48    50     1    109.500    292.880
   44    48    51     1    109.500    292.880
   30    29    31     1    107.800    276.144
   50    48    51     1    107.800    276.144
   49    48    51     1    107.800    276.144
   36    35    38     1    110.700    313.800
   33    32    34     1    107.800    276.144
   28    26    29     1    110.700    313.800
   12    11    14     1    110.700    313.800
   25    23    26     1    110.700    313.800
   30    29    32     1    110.700    313.800
   10     8    11     1    110.700    313.800
   33    32    35     1    110.700    313.800
   21    20    22     1    107.800    276.144
   18    17    20     1    110.700    313.800
   40    38    41     1    109.500    292.880
    6     5     7     1    107.800    276.144
   37    35    38     1    110.700    313.800
    4     2     5     1    110.700    313.800
   34    32    35     1    110.700    313.800
    9     8    11     1    110.700    313.800
    7     5     8     1    110.700    313.800
   13    11    14     1    110.700    313.800
   15    14    17     1    110.700    313.800
   39    38    40     1    107.800    276.144
    9     8    10     1    107.800    276.144
   24    23    25     1    107.800    276.144
   31    29    32     1    110.700    313.800
   43    42    44     1    125.300    669.440
    3     2     5     1    110.700    313.800
   49    48    50     1    107.800    276.144
   36    35    37     1    107.800    276.144
   21    20    23     1    110.700    313.800
   45    44    48     1    124.000    585.760
   15    14    16     1    107.800    276.144
   19    17    20     1    110.700    313.800
   27    26    28     1    107.800    276.144
   16    14    17     1    110.700    313.800
   24    23    26     1    110.700    313.800
   18    17    19     1    107.800    276.144
    3     2     4     1    107.800    276.144
   22    20    23     1    110.700    313.800
   46    45    47     1    117.000    292.880
    6     5     8     1    110.700    313.800
   39    38    41     1    109.500    292.880
   12    11    13     1    107.800    276.144
   27    26    29     1    110.700    313.800

[ dihedrals ]
; IMPROPER DIHEDRAL ANGLES 
;  ai    aj    ak    al funct            c0            c1            c2            c3            c4            c5
    44    42    41    43    4        180.000     43.932     2  
    48    44    42    45    4        180.000     10.460     2  
    47    45    44    46    4        180.000     10.460     2  

[ dihedrals ]
; PROPER DIHEDRAL ANGLES
;  ai    aj    ak    al funct            c0            c1            c2            c3            c4            c5
   42   41   38   35        3      -2.197   5.201   0.527  -3.531  -0.000   0.000
   42   41   38   40        3       0.414   1.243   0.000  -1.657  -0.000   0.000
   42   41   38   39        3       0.414   1.243   0.000  -1.657  -0.000   0.000
   44   42   41   38        3      31.206  -9.768  -21.439  -0.000  -0.000   0.000
   45   44   42   43        3      30.334  -5.230  -25.104  -0.000  -0.000   0.000
   45   44   42   41        3      -5.858  -6.694  12.552  -0.000  -0.000   0.000
   48   44   42   43        3       1.789  -5.052  -0.962   4.226  -0.000   0.000
   48   44   42   41        3       1.789  -5.052  -0.962   4.226  -0.000   0.000
   48   44   45   47        3      58.576   0.000  -58.576  -0.000  -0.000   0.000
   48   44   45   46        3      58.576   0.000  -58.576  -0.000  -0.000   0.000
   32   29   26   23        3       2.301  -1.464   0.837  -1.674  -0.000   0.000
   20   17   14   11        3       2.301  -1.464   0.837  -1.674  -0.000   0.000
   35   32   29   26        3       2.301  -1.464   0.837  -1.674  -0.000   0.000
   17   14   11    8        3       2.301  -1.464   0.837  -1.674  -0.000   0.000
   26   23   20   17        3       2.301  -1.464   0.837  -1.674  -0.000   0.000
   29   26   23   20        3       2.301  -1.464   0.837  -1.674  -0.000   0.000
   38   35   32   29        3       2.301  -1.464   0.837  -1.674  -0.000   0.000
   23   20   17   14        3       2.301  -1.464   0.837  -1.674  -0.000   0.000
   14   11    8    5        3       2.301  -1.464   0.837  -1.674  -0.000   0.000
   11    8    5    2        3       2.301  -1.464   0.837  -1.674  -0.000   0.000
   35   32   29   31        3       0.628   1.883   0.000  -2.510  -0.000   0.000
   32   29   26   27        3       0.628   1.883   0.000  -2.510  -0.000   0.000
   32   29   26   28        3       0.628   1.883   0.000  -2.510  -0.000   0.000
   26   23   20   21        3       0.628   1.883   0.000  -2.510  -0.000   0.000
    8    5    2    4        3       0.628   1.883   0.000  -2.510  -0.000   0.000
   29   26   23   25        3       0.628   1.883   0.000  -2.510  -0.000   0.000
   38   35   32   34        3       0.628   1.883   0.000  -2.510  -0.000   0.000
   17   14   11   12        3       0.628   1.883   0.000  -2.510  -0.000   0.000
   23   20   17   19        3       0.628   1.883   0.000  -2.510  -0.000   0.000
   23   20   17   18        3       0.628   1.883   0.000  -2.510  -0.000   0.000
   14   11    8   10        3       0.628   1.883   0.000  -2.510  -0.000   0.000
   26   23   20   22        3       0.628   1.883   0.000  -2.510  -0.000   0.000
   35   32   29   30        3       0.628   1.883   0.000  -2.510  -0.000   0.000
    8    5    2    1        3       0.628   1.883   0.000  -2.510  -0.000   0.000
   11    8    5    6        3       0.628   1.883   0.000  -2.510  -0.000   0.000
   20   17   14   15        3       0.628   1.883   0.000  -2.510  -0.000   0.000
   14   11    8    9        3       0.628   1.883   0.000  -2.510  -0.000   0.000
   38   35   32   33        3       0.628   1.883   0.000  -2.510  -0.000   0.000
    8    5    2    3        3       0.628   1.883   0.000  -2.510  -0.000   0.000
   20   17   14   16        3       0.628   1.883   0.000  -2.510  -0.000   0.000
   29   26   23   24        3       0.628   1.883   0.000  -2.510  -0.000   0.000
   17   14   11   13        3       0.628   1.883   0.000  -2.510  -0.000   0.000
   11    8    5    7        3       0.628   1.883   0.000  -2.510  -0.000   0.000
   46   45   44   42        3      58.576   0.000  -58.576  -0.000  -0.000   0.000
   47   45   44   42        3      58.576   0.000  -58.576  -0.000  -0.000   0.000
   50   48   44   42        3      -0.778  -2.335   0.000   3.113  -0.000   0.000
   49   48   44   42        3      -0.778  -2.335   0.000   3.113  -0.000   0.000
   51   48   44   42        3      -0.778  -2.335   0.000   3.113  -0.000   0.000
   49   48   44   45        3      -0.778  -2.335   0.000   3.113  -0.000   0.000
   51   48   44   45        3      -0.778  -2.335   0.000   3.113  -0.000   0.000
   50   48   44   45        3      -0.778  -2.335   0.000   3.113  -0.000   0.000
   36   35   32   29        3       0.628   1.883   0.000  -2.510  -0.000   0.000
    9    8    5    2        3       0.628   1.883   0.000  -2.510  -0.000   0.000
   10    8    5    2        3       0.628   1.883   0.000  -2.510  -0.000   0.000
   22   20   17   14        3       0.628   1.883   0.000  -2.510  -0.000   0.000
   16   14   11    8        3       0.628   1.883   0.000  -2.510  -0.000   0.000
   12   11    8    5        3       0.628   1.883   0.000  -2.510  -0.000   0.000
   33   32   29   26        3       0.628   1.883   0.000  -2.510  -0.000   0.000
   28   26   23   20        3       0.628   1.883   0.000  -2.510  -0.000   0.000
   34   32   29   26        3       0.628   1.883   0.000  -2.510  -0.000   0.000
   27   26   23   20        3       0.628   1.883   0.000  -2.510  -0.000   0.000
   15   14   11    8        3       0.628   1.883   0.000  -2.510  -0.000   0.000
   40   38   35   32        3       0.628   1.883   0.000  -2.510  -0.000   0.000
   31   29   26   23        3       0.628   1.883   0.000  -2.510  -0.000   0.000
   18   17   14   11        3       0.628   1.883   0.000  -2.510  -0.000   0.000
   37   35   32   29        3       0.628   1.883   0.000  -2.510  -0.000   0.000
   30   29   26   23        3       0.628   1.883   0.000  -2.510  -0.000   0.000
   21   20   17   14        3       0.628   1.883   0.000  -2.510  -0.000   0.000
   24   23   20   17        3       0.628   1.883   0.000  -2.510  -0.000   0.000
   19   17   14   11        3       0.628   1.883   0.000  -2.510  -0.000   0.000
   25   23   20   17        3       0.628   1.883   0.000  -2.510  -0.000   0.000
   39   38   35   32        3       0.628   1.883   0.000  -2.510  -0.000   0.000
   13   11    8    5        3       0.628   1.883   0.000  -2.510  -0.000   0.000
   18   17   14   15        3       0.628   1.883   0.000  -2.510  -0.000   0.000
   36   35   32   34        3       0.628   1.883   0.000  -2.510  -0.000   0.000
   37   35   32   33        3       0.628   1.883   0.000  -2.510  -0.000   0.000
   31   29   26   28        3       0.628   1.883   0.000  -2.510  -0.000   0.000
   34   32   29   31        3       0.628   1.883   0.000  -2.510  -0.000   0.000
   27   26   23   25        3       0.628   1.883   0.000  -2.510  -0.000   0.000
   13   11    8   10        3       0.628   1.883   0.000  -2.510  -0.000   0.000
   36   35   32   33        3       0.628   1.883   0.000  -2.510  -0.000   0.000
   37   35   32   34        3       0.628   1.883   0.000  -2.510  -0.000   0.000
   39   38   35   37        3       0.628   1.883   0.000  -2.510  -0.000   0.000
   10    8    5    6        3       0.628   1.883   0.000  -2.510  -0.000   0.000
    9    8    5    7        3       0.628   1.883   0.000  -2.510  -0.000   0.000
   22   20   17   18        3       0.628   1.883   0.000  -2.510  -0.000   0.000
   21   20   17   19        3       0.628   1.883   0.000  -2.510  -0.000   0.000
   24   23   20   21        3       0.628   1.883   0.000  -2.510  -0.000   0.000
   18   17   14   16        3       0.628   1.883   0.000  -2.510  -0.000   0.000
   19   17   14   15        3       0.628   1.883   0.000  -2.510  -0.000   0.000
   24   23   20   22        3       0.628   1.883   0.000  -2.510  -0.000   0.000
   25   23   20   21        3       0.628   1.883   0.000  -2.510  -0.000   0.000
   28   26   23   24        3       0.628   1.883   0.000  -2.510  -0.000   0.000
    7    5    2    3        3       0.628   1.883   0.000  -2.510  -0.000   0.000
   30   29   26   28        3       0.628   1.883   0.000  -2.510  -0.000   0.000
   16   14   11   13        3       0.628   1.883   0.000  -2.510  -0.000   0.000
   34   32   29   30        3       0.628   1.883   0.000  -2.510  -0.000   0.000
   12   11    8   10        3       0.628   1.883   0.000  -2.510  -0.000   0.000
   13   11    8    9        3       0.628   1.883   0.000  -2.510  -0.000   0.000
   15   14   11   12        3       0.628   1.883   0.000  -2.510  -0.000   0.000
   27   26   23   24        3       0.628   1.883   0.000  -2.510  -0.000   0.000
    6    5    2    4        3       0.628   1.883   0.000  -2.510  -0.000   0.000
    6    5    2    1        3       0.628   1.883   0.000  -2.510  -0.000   0.000
   16   14   11   12        3       0.628   1.883   0.000  -2.510  -0.000   0.000
   15   14   11   13        3       0.628   1.883   0.000  -2.510  -0.000   0.000
   30   29   26   27        3       0.628   1.883   0.000  -2.510  -0.000   0.000
   39   38   35   36        3       0.628   1.883   0.000  -2.510  -0.000   0.000
   33   32   29   31        3       0.628   1.883   0.000  -2.510  -0.000   0.000
   40   38   35   37        3       0.628   1.883   0.000  -2.510  -0.000   0.000
    9    8    5    6        3       0.628   1.883   0.000  -2.510  -0.000   0.000
    7    5    2    4        3       0.628   1.883   0.000  -2.510  -0.000   0.000
   40   38   35   36        3       0.628   1.883   0.000  -2.510  -0.000   0.000
   33   32   29   30        3       0.628   1.883   0.000  -2.510  -0.000   0.000
   12   11    8    9        3       0.628   1.883   0.000  -2.510  -0.000   0.000
   25   23   20   22        3       0.628   1.883   0.000  -2.510  -0.000   0.000
    6    5    2    3        3       0.628   1.883   0.000  -2.510  -0.000   0.000
   19   17   14   16        3       0.628   1.883   0.000  -2.510  -0.000   0.000
   31   29   26   27        3       0.628   1.883   0.000  -2.510  -0.000   0.000
   21   20   17   18        3       0.628   1.883   0.000  -2.510  -0.000   0.000
    7    5    2    1        3       0.628   1.883   0.000  -2.510  -0.000   0.000
   10    8    5    7        3       0.628   1.883   0.000  -2.510  -0.000   0.000
   28   26   23   25        3       0.628   1.883   0.000  -2.510  -0.000   0.000
   22   20   17   19        3       0.628   1.883   0.000  -2.510  -0.000   0.000
   43   42   41   38        3      21.439   0.000  -21.439  -0.000  -0.000   0.000
   41   38   35   32        3       2.874   0.582   2.092  -5.548  -0.000   0.000
   41   38   35   37        3       0.979   2.937   0.000  -3.916  -0.000   0.000
   41   38   35   36        3       0.979   2.937   0.000  -3.916  -0.000   0.000

[ pairs ]
     1     6    1
     1     7    1
     3     6    1
     1     8    1
     4     6    1
     3     7    1
     4     7    1
     3     8    1
     2     9    1
     4     8    1
     2    10    1
     2    11    1
     6     9    1
     7     9    1
     6    10    1
     7    10    1
     6    11    1
     5    12    1
     7    11    1
     5    13    1
     5    14    1
     9    12    1
    10    12    1
     9    13    1
    10    13    1
     9    14    1
     8    15    1
    10    14    1
     8    16    1
     8    17    1
    12    15    1
    13    15    1
    12    16    1
    13    16    1
    12    17    1
    11    18    1
    13    17    1
    11    19    1
    11    20    1
    15    18    1
    16    18    1
    15    19    1
    16    19    1
    15    20    1
    14    21    1
    16    20    1
    14    22    1
    14    23    1
    18    21    1
    19    21    1
    18    22    1
    19    22    1
    18    23    1
    17    24    1
    19    23    1
    17    25    1
    17    26    1
    21    24    1
    22    24    1
    21    25    1
    22    25    1
    21    26    1
    20    27    1
    22    26    1
    20    28    1
    20    29    1
    24    27    1
    25    27    1
    24    28    1
    25    28    1
    24    29    1
    23    30    1
    25    29    1
    23    31    1
    23    32    1
    27    30    1
    28    30    1
    27    31    1
    28    31    1
    27    32    1
    26    33    1
    28    32    1
    26    34    1
    26    35    1
    30    33    1
    31    33    1
    30    34    1
    31    34    1
    30    35    1
    29    36    1
    31    35    1
    29    37    1
    29    38    1
    33    36    1
    34    36    1
    33    37    1
    34    37    1
    33    38    1
    32    39    1
    34    38    1
    32    40    1
    32    41    1
    36    39    1
    37    39    1
    36    40    1
    37    40    1
    36    41    1
    35    42    1
    37    41    1
    39    42    1
    38    43    1
    40    42    1
    38    44    1
    41    45    1
    43    45    1
    42    46    1
    42    47    1
    41    48    1
    43    48    1
    42    49    1
    42    50    1
    42    51    1
    46    48    1
    45    49    1
    47    48    1
    45    50    1
    45    51    1
